HEADER
"PSFversion" "1.00"
"I0n" "Inverter"
"C0n" "NCSU_Analog_Parts_cap_spectre"
"V0n VGn" "NCSU_Analog_Parts_vdc_spectre"
