HEADER
"PSFversion" "1.00"
"design" "(\"CMOS\" \"Inverter_testbench\" \"schematic\" \"\")"
"simulator" "spectre"
"temperature" "27"
"host" ""
"date" "Oct  8 22:36:12 2016"
"title" ""
"analysisList" "()"
END
